<?xml version="1.0"?>
<VTKFile type="UnstructuredGrid"  version="0.1"  >
<UnstructuredGrid>
<Piece  NumberOfPoints="7225" NumberOfCells="36864">
<Points>
<DataArray  type="Float64"  NumberOfComponents="3"  format="ascii">0 0 0  0.04166666666666666 0 0  0.08333333333333333 0 0  0.125 0 0  0.1666666666666667 0 0  0.2083333333333333 0 0  0.25 0 0  0.2916666666666667 0 0  0.3333333333333333 0 0  0.375 0 0  0.4166666666666667 0 0  0.4583333333333333 0 0  0.5 0 0  0.5416666666666666 0 0  0.5833333333333334 0 0  0.625 0 0  0.6666666666666666 0 0  0.7083333333333334 0 0  0.75 0 0  0.7916666666666666 0 0  0.8333333333333334 0 0  0.875 0 0  0.9166666666666666 0 0  0.9583333333333334 0 0  1 0 0  0 0.0625 0  0.04166666666666666 0.0625 0  0.08333333333333333 0.0625 0  0.125 0.0625 0  0.1666666666666667 0.0625 0  0.2083333333333333 0.0625 0  0.25 0.0625 0  0.2916666666666667 0.0625 0  0.3333333333333333 0.0625 0  0.375 0.0625 0  0.4166666666666667 0.0625 0  0.4583333333333333 0.0625 0  0.5 0.0625 0  0.5416666666666666 0.0625 0  0.5833333333333334 0.0625 0  0.625 0.0625 0  0.6666666666666666 0.0625 0  0.7083333333333334 0.0625 0  0.75 0.0625 0  0.7916666666666666 0.0625 0  0.8333333333333334 0.0625 0  0.875 0.0625 0  0.9166666666666666 0.0625 0  0.9583333333333334 0.0625 0  1 0.0625 0  0 0.125 0  0.04166666666666666 0.125 0  0.08333333333333333 0.125 0  0.125 0.125 0  0.1666666666666667 0.125 0  0.2083333333333333 0.125 0  0.25 0.125 0  0.2916666666666667 0.125 0  0.3333333333333333 0.125 0  0.375 0.125 0  0.4166666666666667 0.125 0  0.4583333333333333 0.125 0  0.5 0.125 0  0.5416666666666666 0.125 0  0.5833333333333334 0.125 0  0.625 0.125 0  0.6666666666666666 0.125 0  0.7083333333333334 0.125 0  0.75 0.125 0  0.7916666666666666 0.125 0  0.8333333333333334 0.125 0  0.875 0.125 0  0.9166666666666666 0.125 0  0.9583333333333334 0.125 0  1 0.125 0  0 0.1875 0  0.04166666666666666 0.1875 0  0.08333333333333333 0.1875 0  0.125 0.1875 0  0.1666666666666667 0.1875 0  0.2083333333333333 0.1875 0  0.25 0.1875 0  0.2916666666666667 0.1875 0  0.3333333333333333 0.1875 0  0.375 0.1875 0  0.4166666666666667 0.1875 0  0.4583333333333333 0.1875 0  0.5 0.1875 0  0.5416666666666666 0.1875 0  0.5833333333333334 0.1875 0  0.625 0.1875 0  0.6666666666666666 0.1875 0  0.7083333333333334 0.1875 0  0.75 0.1875 0  0.7916666666666666 0.1875 0  0.8333333333333334 0.1875 0  0.875 0.1875 0  0.9166666666666666 0.1875 0  0.9583333333333334 0.1875 0  1 0.1875 0  0 0.25 0  0.04166666666666666 0.25 0  0.08333333333333333 0.25 0  0.125 0.25 0  0.1666666666666667 0.25 0  0.2083333333333333 0.25 0  0.25 0.25 0  0.2916666666666667 0.25 0  0.3333333333333333 0.25 0  0.375 0.25 0  0.4166666666666667 0.25 0  0.4583333333333333 0.25 0  0.5 0.25 0  0.5416666666666666 0.25 0  0.5833333333333334 0.25 0  0.625 0.25 0  0.6666666666666666 0.25 0  0.7083333333333334 0.25 0  0.75 0.25 0  0.7916666666666666 0.25 0  0.8333333333333334 0.25 0  0.875 0.25 0  0.9166666666666666 0.25 0  0.9583333333333334 0.25 0  1 0.25 0  0 0.3125 0  0.04166666666666666 0.3125 0  0.08333333333333333 0.3125 0  0.125 0.3125 0  0.1666666666666667 0.3125 0  0.2083333333333333 0.3125 0  0.25 0.3125 0  0.2916666666666667 0.3125 0  0.3333333333333333 0.3125 0  0.375 0.3125 0  0.4166666666666667 0.3125 0  0.4583333333333333 0.3125 0  0.5 0.3125 0  0.5416666666666666 0.3125 0  0.5833333333333334 0.3125 0  0.625 0.3125 0  0.6666666666666666 0.3125 0  0.7083333333333334 0.3125 0  0.75 0.3125 0  0.7916666666666666 0.3125 0  0.8333333333333334 0.3125 0  0.875 0.3125 0  0.9166666666666666 0.3125 0  0.9583333333333334 0.3125 0  1 0.3125 0  0 0.375 0  0.04166666666666666 0.375 0  0.08333333333333333 0.375 0  0.125 0.375 0  0.1666666666666667 0.375 0  0.2083333333333333 0.375 0  0.25 0.375 0  0.2916666666666667 0.375 0  0.3333333333333333 0.375 0  0.375 0.375 0  0.4166666666666667 0.375 0  0.4583333333333333 0.375 0  0.5 0.375 0  0.5416666666666666 0.375 0  0.5833333333333334 0.375 0  0.625 0.375 0  0.6666666666666666 0.375 0  0.7083333333333334 0.375 0  0.75 0.375 0  0.7916666666666666 0.375 0  0.8333333333333334 0.375 0  0.875 0.375 0  0.9166666666666666 0.375 0  0.9583333333333334 0.375 0  1 0.375 0  0 0.4375 0  0.04166666666666666 0.4375 0  0.08333333333333333 0.4375 0  0.125 0.4375 0  0.1666666666666667 0.4375 0  0.2083333333333333 0.4375 0  0.25 0.4375 0  0.2916666666666667 0.4375 0  0.3333333333333333 0.4375 0  0.375 0.4375 0  0.4166666666666667 0.4375 0  0.4583333333333333 0.4375 0  0.5 0.4375 0  0.5416666666666666 0.4375 0  0.5833333333333334 0.4375 0  0.625 0.4375 0  0.6666666666666666 0.4375 0  0.7083333333333334 0.4375 0  0.75 0.4375 0  0.7916666666666666 0.4375 0  0.8333333333333334 0.4375 0  0.875 0.4375 0  0.9166666666666666 0.4375 0  0.9583333333333334 0.4375 0  1 0.4375 0  0 0.5 0  0.04166666666666666 0.5 0  0.08333333333333333 0.5 0  0.125 0.5 0  0.1666666666666667 0.5 0  0.2083333333333333 0.5 0  0.25 0.5 0  0.2916666666666667 0.5 0  0.3333333333333333 0.5 0  0.375 0.5 0  0.4166666666666667 0.5 0  0.4583333333333333 0.5 0  0.5 0.5 0  0.5416666666666666 0.5 0  0.5833333333333334 0.5 0  0.625 0.5 0  0.6666666666666666 0.5 0  0.7083333333333334 0.5 0  0.75 0.5 0  0.7916666666666666 0.5 0  0.8333333333333334 0.5 0  0.875 0.5 0  0.9166666666666666 0.5 0  0.9583333333333334 0.5 0  1 0.5 0  0 0.5625 0  0.04166666666666666 0.5625 0  0.08333333333333333 0.5625 0  0.125 0.5625 0  0.1666666666666667 0.5625 0  0.2083333333333333 0.5625 0  0.25 0.5625 0  0.2916666666666667 0.5625 0  0.3333333333333333 0.5625 0  0.375 0.5625 0  0.4166666666666667 0.5625 0  0.4583333333333333 0.5625 0  0.5 0.5625 0  0.5416666666666666 0.5625 0  0.5833333333333334 0.5625 0  0.625 0.5625 0  0.6666666666666666 0.5625 0  0.7083333333333334 0.5625 0  0.75 0.5625 0  0.7916666666666666 0.5625 0  0.8333333333333334 0.5625 0  0.875 0.5625 0  0.9166666666666666 0.5625 0  0.9583333333333334 0.5625 0  1 0.5625 0  0 0.625 0  0.04166666666666666 0.625 0  0.08333333333333333 0.625 0  0.125 0.625 0  0.1666666666666667 0.625 0  0.2083333333333333 0.625 0  0.25 0.625 0  0.2916666666666667 0.625 0  0.3333333333333333 0.625 0  0.375 0.625 0  0.4166666666666667 0.625 0  0.4583333333333333 0.625 0  0.5 0.625 0  0.5416666666666666 0.625 0  0.5833333333333334 0.625 0  0.625 0.625 0  0.6666666666666666 0.625 0  0.7083333333333334 0.625 0  0.75 0.625 0  0.7916666666666666 0.625 0  0.8333333333333334 0.625 0  0.875 0.625 0  0.9166666666666666 0.625 0  0.9583333333333334 0.625 0  1 0.625 0  0 0.6875 0  0.04166666666666666 0.6875 0  0.08333333333333333 0.6875 0  0.125 0.6875 0  0.1666666666666667 0.6875 0  0.2083333333333333 0.6875 0  0.25 0.6875 0  0.2916666666666667 0.6875 0  0.3333333333333333 0.6875 0  0.375 0.6875 0  0.4166666666666667 0.6875 0  0.4583333333333333 0.6875 0  0.5 0.6875 0  0.5416666666666666 0.6875 0  0.5833333333333334 0.6875 0  0.625 0.6875 0  0.6666666666666666 0.6875 0  0.7083333333333334 0.6875 0  0.75 0.6875 0  0.7916666666666666 0.6875 0  0.8333333333333334 0.6875 0  0.875 0.6875 0  0.9166666666666666 0.6875 0  0.9583333333333334 0.6875 0  1 0.6875 0  0 0.75 0  0.04166666666666666 0.75 0  0.08333333333333333 0.75 0  0.125 0.75 0  0.1666666666666667 0.75 0  0.2083333333333333 0.75 0  0.25 0.75 0  0.2916666666666667 0.75 0  0.3333333333333333 0.75 0  0.375 0.75 0  0.4166666666666667 0.75 0  0.4583333333333333 0.75 0  0.5 0.75 0  0.5416666666666666 0.75 0  0.5833333333333334 0.75 0  0.625 0.75 0  0.6666666666666666 0.75 0  0.7083333333333334 0.75 0  0.75 0.75 0  0.7916666666666666 0.75 0  0.8333333333333334 0.75 0  0.875 0.75 0  0.9166666666666666 0.75 0  0.9583333333333334 0.75 0  1 0.75 0  0 0.8125 0  0.04166666666666666 0.8125 0  0.08333333333333333 0.8125 0  0.125 0.8125 0  0.1666666666666667 0.8125 0  0.2083333333333333 0.8125 0  0.25 0.8125 0  0.2916666666666667 0.8125 0  0.3333333333333333 0.8125 0  0.375 0.8125 0  0.4166666666666667 0.8125 0  0.4583333333333333 0.8125 0  0.5 0.8125 0  0.5416666666666666 0.8125 0  0.5833333333333334 0.8125 0  0.625 0.8125 0  0.6666666666666666 0.8125 0  0.7083333333333334 0.8125 0  0.75 0.8125 0  0.7916666666666666 0.8125 0  0.8333333333333334 0.8125 0  0.875 0.8125 0  0.9166666666666666 0.8125 0  0.9583333333333334 0.8125 0  1 0.8125 0  0 0.875 0  0.04166666666666666 0.875 0  0.08333333333333333 0.875 0  0.125 0.875 0  0.1666666666666667 0.875 0  0.2083333333333333 0.875 0  0.25 0.875 0  0.2916666666666667 0.875 0  0.3333333333333333 0.875 0  0.375 0.875 0  0.4166666666666667 0.875 0  0.4583333333333333 0.875 0  0.5 0.875 0  0.5416666666666666 0.875 0  0.5833333333333334 0.875 0  0.625 0.875 0  0.6666666666666666 0.875 0  0.7083333333333334 0.875 0  0.75 0.875 0  0.7916666666666666 0.875 0  0.8333333333333334 0.875 0  0.875 0.875 0  0.9166666666666666 0.875 0  0.9583333333333334 0.875 0  1 0.875 0  0 0.9375 0  0.04166666666666666 0.9375 0  0.08333333333333333 0.9375 0  0.125 0.9375 0  0.1666666666666667 0.9375 0  0.2083333333333333 0.9375 0  0.25 0.9375 0  0.2916666666666667 0.9375 0  0.3333333333333333 0.9375 0  0.375 0.9375 0  0.4166666666666667 0.9375 0  0.4583333333333333 0.9375 0  0.5 0.9375 0  0.5416666666666666 0.9375 0  0.5833333333333334 0.9375 0  0.625 0.9375 0  0.6666666666666666 0.9375 0  0.7083333333333334 0.9375 0  0.75 0.9375 0  0.7916666666666666 0.9375 0  0.8333333333333334 0.9375 0  0.875 0.9375 0  0.9166666666666666 0.9375 0  0.9583333333333334 0.9375 0  1 0.9375 0  0 1 0  0.04166666666666666 1 0  0.08333333333333333 1 0  0.125 1 0  0.1666666666666667 1 0  0.2083333333333333 1 0  0.25 1 0  0.2916666666666667 1 0  0.3333333333333333 1 0  0.375 1 0  0.4166666666666667 1 0  0.4583333333333333 1 0  0.5 1 0  0.5416666666666666 1 0  0.5833333333333334 1 0  0.625 1 0  0.6666666666666666 1 0  0.7083333333333334 1 0  0.75 1 0  0.7916666666666666 1 0  0.8333333333333334 1 0  0.875 1 0  0.9166666666666666 1 0  0.9583333333333334 1 0  1 1 0  0 0 0.0625  0.04166666666666666 0 0.0625  0.08333333333333333 0 0.0625  0.125 0 0.0625  0.1666666666666667 0 0.0625  0.2083333333333333 0 
[...]
<PointData  Vectors="u"> 
<DataArray  type="Float64"  Name="u"  NumberOfComponents="3" format="ascii">0.0000000000000000e+00 0.0000000000000000e+00 0.0000000000000000e+00  3.4606069902895824e-02 2.9251406975127563e-02 3.1836226764954484e-02  6.2574831583709620e-02 4.9911413085989571e-02 5.5077500825483072e-02  8.5498608634692427e-02 6.7643105739403478e-02 7.5297195775393497e-02  1.0472682959439206e-01 8.4173967772479874e-02 9.4171546284876145e-02  1.2104675063624817e-01 1.0018016359367787e-01 1.1234038475118308e-01  1.3490403229453851e-01 1.1597949004826148e-01 1.3009379161099197e-01  1.4655369616897621e-01 1.3173423573302473e-01 1.4757171108735320e-01  1.5614171397886834e-01 1.4752619118909954e-01 1.6483696258233013e-01  1.6374838705380551e-01 1.6339063902204701e-01 1.8190787858793203e-01  1.6941126838898943e-01 1.7933443306471158e-01 1.9877532616644980e-01  1.7313631935836499e-01 1.9534682191626207e-01 2.1541255347929092e-01  1.7490139057322410e-01 2.1140643789595853e-01 2.3178115904471236e-01  1.7465382528389550e-01 2.2748590710037014e-01 2.4783460878336089e-01  1.7230296091171016e-01 2.4355470403736568e-01 2.6352004915712834e-01  1.6770839294264014e-01 2.5958062800766069e-01 2.7877920470744794e-01  1.6066669226454278e-01 2.7553075725927689e-01 2.9355007772021480e-01  1.5090423009455656e-01 2.9137455940459067e-01 3.0777347694344825e-01  1.3809305703351896e-01 3.0709520450141203e-01 3.2141192499199966e-01  1.2191704973269255e-01 3.2271621750282986e-01 3.3448956597855484e-01  1.0221132564955454e-01 3.3833658863032878e-01 3.4715055723747174e-01  7.9158242737919979e-02 3.5412656043143154e-01 3.5970266259828454e-01  5.3466684687962313e-02 3.7019049821840838e-01 3.7257467859629884e-01  2.6459287072338331e-02 3.8615282625425651e-01 3.8608251426039469e-01  0.0000000000000000e+00 4.0000000000000002e-01 4.0000000000000002e-01  0.0000000000000000e+00 0.0000000000000000e+00 0.0000000000000000e+00  2.8281578890465744e-02 2.0938486280781387e-02 3.2471286027689027e-02  5.3044204552141920e-02 4.0327037215398202e-02 5.4872333916772723e-02  7.4095007902470381e-02 5.8154404637482678e-02 7.4502577936403580e-02  9.2035244750844819e-02 7.5052012883074809e-02 9.2980868386969756e-02  1.0733565356032335e-01 9.1469296590443325e-02 1.1084098513401501e-01  1.2029957818141425e-01 1.0767583269094215e-01 1.2832380552328657e-01  1.3111443102893761e-01 1.2382806953640207e-01 1.4554779083527372e-01  1.3989241634112848e-01 1.4001278214293750e-01 1.6256567860704446e-01  1.4669596339236948e-01 1.5627279505153782e-01 1.7939071759007899e-01  1.5155255581384144e-01 1.7262295474009667e-01 1.9601122904593790e-01  1.5446264583359268e-01 1.8906079515857852e-01 2.1239967237426438e-01  1.5540298232090144e-01 2.0557422253660446e-01 2.2851887761656328e-01  1.5432697970922121e-01 2.2214750029867489e-01 2.4432686180368185e-01  1.5116371627961525e-01 2.3876632255747446e-01 2.5978120648408776e-01  1.4581780489361590e-01 2.5542255905897354e-01 2.7484389019528993e-01  1.3817380392651793e-01 2.7211912401733102e-01 2.8948752852775056e-01  1.2811084983558260e-01 2.8887485223858883e-01 3.0370397738144855e-01  1.1553466121982965e-01 3.0572692901613385e-01 3.1751589872174285e-01  1.0043201482407146e-01 3.2272232404927481e-01 3.3099067394798315e-01  8.2943003546518207e-02 3.3987981392098865e-01 3.4425355207556285e-01  6.3428927521135062e-02 3.5709462293994676e-01 3.5749494503775614e-01  4.2502228639796628e-02 3.7394177608842366e-01 3.7097336008612475e-01  2.1004940152590232e-02 3.8925134477643214e-01 3.8502784022458281e-01  0.0000000000000000e+00 4.0000000000000002e-01 4.0000000000000002e-01  0.0000000000000000e+00 0.0000000000000000e+00 0.0000000000000000e+00  2.5699776807024680e-02 1.6882642205483019e-02 3.1762523980531442e-02  4.7534282281289496e-02 3.3983977798250069e-02 5.4053685346439416e-02  6.6348207333687181e-02 5.0889311544440201e-02 7.3448729203901511e-02  8.2613356445630587e-02 6.7526815910370838e-02 9.1671718394235838e-02  9.6602062575570025e-02 8.3993562970882285e-02 1.0929999923944049e-01  1.0848272718619768e-01 1.0040590276762940e-01 1.2657671707162754e-01  1.1836105613659968e-01 1.1685324244547640e-01 1.4361446470280434e-01  1.2630170124671636e-01 1.3339263688910380e-01 1.6046106477214936e-01  1.3234108185759774e-01 1.5005436511793935e-01 1.7712724574610009e-01  1.3649530805387136e-01 1.6684931709824646e-01 1.9360122196696006e-01  1.3876510651773444e-01 1.8377586126707882e-01 2.0985788237310074e-01  1.3913897042030696e-01 2.0082577002058580e-01 2.2586553450704847e-01  1.3759555939974555e-01 2.1798920462694918e-01 2.4159159901661006e-01  1.3410641914573365e-01 2.3525871284759672e-01 2.5700802806159084e-01  1.2864027122668975e-01 2.5263190728021845e-01 2.7209684337248785e-01  1.2117034177707303e-01 2.7011193648816545e-01 2.8685579045245085e-01  1.1168625441817424e-01 2.8770385064448162e-01 3.0130360351432206e-01  1.0021148753765932e-01 3.0540325202508822e-01 3.1548387756859608e-01  8.6825560583180236e-02 3.2317123097697709e-01 3.2946630597790977e-01  7.1686366150060410e-02 3.4088732033280233e-01 3.4334417338627804e-01  5.5043764669638194e-02 3.5827070317235604e-01 3.5722682061641703e-01  3.7236638496365694e-02 3.7475514196820919e-01 3.7122208014191854e-01  1.8683180065816631e-02 3.8928577390378455e-01 3.8539643146294511e-01  0.0000000000000000e+00 4.0000000000000002e-01 4.0000000000000002e-01  0.0000000000000000e+00 0.0000000000000000e+00 0.0000000000000000e+00  2.4171768006475601e-02 1.4628571853567291e-02 3.0820201498752604e-02  4.4130712897268373e-02 2.9971721886856109e-02 5.2808734896665988e-02  6.1143835762016416e-02 4.5755773499228679e-02 7.2036078532077094e-02  7.5853675885629565e-02 6.1799044861446030e-02 9.0108860813218616e-02  8.8536726620999442e-02 7.8031011857033164e-02 1.0759901702711541e-01  9.9318421252964820e-02 9.4443636322251195e-02 1.2475526931669739e-01  1.0826095774369129e-01 1.1104908128261266e-01 1.4169230590482773e-01  1.1539715657596653e-01 1.2785869425730853e-01 1.5845810693734938e-01  1.2074467108481104e-01 1.4487586333393385e-01 1.7506371611225724e-01  1.2431286925011248e-01 1.6209549780082511e-01 1.9149896434157865e-01  1.2610680220976844e-01 1.7950612570201405e-01 2.0774226352549807e-01  1.2613002599565071e-01 1.9709265183960281e-01 2.2376771076832863e-01  1.2438712426590877e-01 2.1483874041397172e-01 2.3955093360901011e-01  1.2088639433639949e-01 2.3272806398707230e-01 2.5507428790538117e-01  1.1564289745149424e-01 2.5074358934320079e-01 2.7033148769016629e-01  1.0868180348608052e-01 2.6886380005723104e-01 2.8533124051559117e-01  1.0004167762646159e-01 2.8705438180013665e-01 3.0009894570392498e-01  8.9777146656944071e-02 3.0525354064309262e-01 3.1467515154359565e-01  7.7960386545748231e-02 3.2334902203665700e-01 3.2910955686352061e-01  6.4681379437279696e-02 3.4114544487872006e-01 3.4344985499765202e-01  5.0048860820221898e-02 3.5832204477822599e-01 3.5772410752247563e-01  3.4199693777628770e-02 3.7438302770998466e-01 3.7191035283799417e-01  1.7340450737152818e-02 3.8860606262799624e-01 3.8590350442744703e-01  0.0000000000000000e+00 4.0000000000000002e-01 4.0000000000000002e-01  0.0000000000000000e+00 0.0000000000000000e+00 0.0000000000000000e+00  2.3094775295964241e-02 1.3264733570915161e-02 2.9828587582314627e-02  4.1790842408982357e-02 2.7375630836998247e-02 5.1389232524839346e-02  5.7501457428230963e-02 4.2206745979224053e-02 7.0402037981608170e-02  7.0977009908931299e-02 5.7612981917283049e-02 8.8346378971303832e-02  8.2549563155415034e-02 7.3490536643095530e-02 1.0575141030281776e-01  9.2358940573549236e-02 8.9775806313507581e-02 1.2285342686490380e-01  1.0046298201772434e-01 1.0642932312807638e-01 1.3976366159342676e-01  1.0688610554542032e-01 1.2342196720944953e-01 1.5652905804355877e-01  1.1164057181635030e-01 1.4072701855736741e-01 1.7316071406993438e-01  1.1473616677506560e-01 1.5831677478691569e-01 1.8964962094807639e-01  1.1618498766735566e-01 1.7616171253526741e-01 2.0597661271749920e-01  1.1600413013478093e-01 1.9423059064708534e-01 2.2211944024127703e-01  1.1421738518760803e-01 2.1249035746683961e-01 2.3805827269367588e-01  1.1085622439760939e-01 2.3090499301695078e-01 2.5378011586045862e-01  1.0595984392705229e-01 2.4943253297709805e-01 2.6928208582058849e-01  9.9573702157748897e-02 2.6801959523608410e-01 2.8457298886292109e-01  9.1745899432208677e-02 2.8659288473544048e-01 2.9967222149385842e-01  8.2521166665506615e-02 3.0504751544994202e-01 3.1460478484621751e-01  7.1933540625650605e-02 3.2323268971389385e-01 3.2939148899354076e-01  6.0001457542134880e-02 3.4093643071435725e-01 3.4403416833862122e-01  4.6733363330033445e-02 3.5787263404733000e-01 3.5849553519975047e-01  3.2157752117439924e-02 3.7367491849038204e-01 3.7267088350499405e-01  1.6401652331039986e-02 3.8789854970242021e-01 3.8638231231529102e-01  0.0000000000000000e+00 4.0000000000000002e-01 4.0000000000000002e-01  0.0000000000000000e+00 0.0000000000000000e+00 0.0000000000000000e+00  2.2263941951204874e-02 1.2379008540760324e-02 2.8851303618601113e-02  4.0053858340783358e-02 2.5627261570069806e-02 4.9923492153105639e-02  5.4828102421287182e-02 3.9721097082474885e-02 6.8675420814642410e-02  6.7381228623208361e-02 5.4573093468395867e-02 8.6480977307654167e-02  7.8085240415556298e-02 7.0094060903005462e-02 1.0382136106062970e-01  8.7105952419925275e-02 8.6207607136839337e-02 1.2091014980735686e-01  9.4514955162218570e-02 1.0284928987897636e-01 1.3784763836220021e-01  1.0034387404187606e-01 1.1996234566968028e-01 1.5467527758094388e-01  1.0461043810484295e-01 1.3749392035237865e-01 1.7140137965734439e-01  1.0733099007442984e-01 1.5539265256045939e-01 1.8801575231785311e-01  1.0852643651004443e-01 1.7360724619803328e-01 2.0449910894883189e-01  1.0822489526680093e-01 1.9208533880046408e-01 2.2082966019044392e-01  1.0646241737364509e-01 2.1077199735822916e-01 2.3698795369181400e-01  1.0328215115844747e-01 2.2960730067818896e-01 2.5296033379689492e-01  9.8731741882481572e-02 2.4852263464529578e-01 2.6874091076819973e-01  9.2858498959643251e-02 2.6743556293513693e-01 2.8433151966831671e-01  8.5702010958042696e-02 2.8624349842324703e-01 2.9973882411319758e-01  7.7284723046652570e-02 3.0481693374863289e-01 3.1496764045892311e-01  6.7602916862787368e-02 3.2299368374456489e-01 3.3000997771982021e-01  5.6623888625429407e-02 3.4057631156190493e-01 3.4483016343532208e-01  4.4299620374540535e-02 3.5733515697827212e-01 3.5934655397516874e-01  3.0610922664198504e-02 3.7301744612541438e-01 3.7340965731453540e-01  1.5661096689847803e-02 3.8735261158230250e-01 3.8681765832038489e-01  0.0000000000000000e+00 4.0000000000000002e-01 4.0000000000000002e-01  0.0000000000000000e+00 0.0000000000000000e+00 0.0000000000000000e+00  2.1584663128835883e-02 1.1751275958766750e-02 2.7908508809742872e-02  3.8690328366135424e-02 2.4369834619909114e-02 4.8467273277520914e-02  5.2778656223395684e-02 3.7900091526399962e-02 6.6929260375604788e-02  6.4651886365223052e-02 5.2304631294748556e-02 8.4583097900110080e-02  7.4700119526072362e-02 6.7519074604179011e-02 1.0186608970680948e-01  8.3108424596858729e-02 8.3470777738601148e-02 1.1896628571198645e-01  8.9964646285871822e-02 1.0008513336912944e-01 1.3596845075411623e-01  9.5313475037733617e-02 1.1728771212067729e-01 1.5290429130762687e-01  9.9183727104133299e-02 1.3500480444870000e-01 1.6977578420288725e-01  1.0160196690056096e-01 1.5316326340423292e-01 1.8656842107453467e-01  1.0259893043611200e-01 1.7168987869297808e-01 2.0325969838899008e-01  1.0221193582163961e-01 1.9051021669708462e-01 2.1982493098987749e-01  1.0048474322988388e-01 2.0954677650847414e-01 2.3624127182283036e-01  9.7465364866641105e-02 2.2871635910972760e-01 2.5249023010517857e-01  9.3201803321149065e-02 2.4792669388805580e-01 2.6855858547326439e-01  8.7735535611552298e-02 2.6707261241020241e-01 2.8443727912166133e-01  8.1092856590927256e-02 2.8603240456775780e-01 3.0011764316708067e-01  7.3275197400777189e-02 3.0466540352262189e-01 3.1558434535712265e-01  6.4251578107256777e-02 3.2281220590859605e-01 3.3080487931081581e-01  5.3959597304100923e-02 3.4029894666779548e-01 3.4571623382695965e-01  4.2325077436344012e-02 3.5694599939232063e-01 3.6020946557386985e-01  2.9312161661201298e-02 3.7257748279494068e-01 3.7411302891719750e-01  1.5018779573545879e-02 3.8701534035479390e-01 3.8722052314754463e-01  0.0000000000000000e+00 4.0000000000000002e-01 4.0000000000000002e-01  0.0000000000000000e+00 0.0000000000000000e+00 0.0000000000000000e+00  2.1000725152450852e-02 1.1246111358561933e-02 2.6996685263872507e-02  3.7563592064504069e-02 2.3364752511179514e-02 4.7032577065880918e-02  5.1132379623061421e-02 3.6448167149244669e-02 6.5189003252941233e-02  6.2496285389152570e-02 5.0496829036696000e-02 8.2683510174394667e-02  7.2047127107663408e-02 6.5467640727284199e-02 9.9914090820941506e-02  7.9979698700882035e-02 8.1293797485865987e-02 1.1704300628119084e-01  8.6394664409798455e-02 9.7894926262213605e-02 1.3413703488393910e-01  9.1350129165238964e-02 1.1518335258036806e-01 1.5121500325852247e-01  9.4887834235342944e-02 1.3306795442599631e-01 1.6826941017879216e-01  9.7046275605581947e-02 1.5145618938101013e-01 1.8527843332691790e-01  9.7866704689077544e-02 1.7025466690404950e-01 2.0221343111404727e-01  9.7394975744337572e-02 1.8936853603805673e-01 2.1904388220193588e-01  9.5680662195153116e-02 2.0869991413124772e-01 2.3574056544642169e-01  9.2774020340889607e-02 2.2814560711846163e-01 2.5227725176992177e-01  8.8720950507195126e-02 2.4759447733672965e-01 2.6863085180164198e-01  8.3556030418966976e-02 2.6692499872677783e-01 2.8477972166715648e-01  7.7294056856601207e-02 2.8600377390523163e-01 3.0069968143949211e-01  6.9921533300150801e-02 3.0468599396705365e-01 3.1635734957504669e-01  6.1391435250231892e-02 3.2281882660430372e-01 3.3170078008590970e-01  5.1627393898948028e-02 3.4024817558245479e-01 3.4664797572525469e-01  4.0546281906133408e-02 3.5682746370955182e-01 3.6107372671455784e-01  2.8108716707823545e-02 3.7242241812994148e-01 3.7479583235518971e-01  1.4410379158114306e-02 3.8689353345187716e-01 3.8760878668749693e-01  0.0000000000000000e+00 4.0000000000000002e-01 4.0000000000000002e-01  0.0000000000000000e+00 0.0000000000000000e+00 0.0000000000000000e+00  2.0470073092250161e-02 1.0769702278714535e-02 2.6096829749861366e-02  3.6575070246831924e-02 2.2440981149564488e-02 4.5602171184129195e-02  4.9726779417272847e-02 3.5142928534005434e-02 6.3444179285162536e-02  6.0687957557063049e-02 4.8902214172757079e-02 8.0777097492114633e-02  6.9840929923538353e-02 6.3688179449942206e-02 9.7962012451488598e-02  7.7382669935300213e-02 7.9434576168613380e-02 1.1513501524434915e-01  8.3422819562131212e-02 9.6053009243375731e-02 1.3234312119803518e-01  8.8031834634432690e-02 1.1344239524451234e-01 1.4958993020397207e-01  9.1264876832695019e-02 1.3149530316915617e-01 1.6685598887686803e-01  9.3173388222586237e-02 1.5010165578799683e-01 1.8410974127585919e-01  9.3810011120678896e-02 1.6915029988924107e-01 2.0131408605835938e-01  9.3229618219682467e-02 1.8852895354623020e-01 2.1843045372110431e-01  9.1487783148217344e-02 2.0812301075735906e-01 2.3542120044162954e-01  8.8637278154896387e-02 2.2781367913475686e-01 2.5225061154061096e-01  8.4722842247213284e-02 2.4747597491515305e-01 2.6888452001899193e-01  7.9774448498334080e-02 2.6697720269141523e-01 2.8528835131016489e-01  7.3799674467552825e-02 2.8617666953071741e-01 3.0142329373844362e-01  6.6776704131177575e-02 3.0492743038669684e-01 3.1724032838804822e-01  5.8651145551267561e-02 3.2308064102682432e-01 3.3267210861545987e-01  4.9342187454352190e-02 3.4049225737104449e-01 3.4762299890870108e-01  3.8765792114289627e-02 3.5702973707281027e-01 3.6195723285104270e-01  2.6882709916362931e-02 3.7257166559354182e-01 3.7548619660426608e-01  1.3783638277639090e-02 3.8698150825047378e-01 3.8800432228255316e-01  0.0000000000000000e+00 4.0000000000000002e-01 4.0000000000000002e-01  0.0000000000000000e+00 0.0000000000000000e+00 0.0000000000000000e+00  1.9954488475517704e-02 1.0249924338771975e-02 2.5177901742469248e-02  3.5639752671451981e-02 2.1467329455502393e-02 4.4136984288936996e-02  4.8422845762754213e-02 3.3812208170525000e-02 6.1656570562372372e-02  5.9029737488889407e-02 4.7325455214614530e-02 7.8828855996771433e-02  6.7825829627649006e-02 6.1976556976075084e-02 9.5977259899896764e-02  7.5005866969416302e-02 7.7690060954189455e-02 1.1321004662737821e-01  8.0686594386462557e-02 9.4363240443049182e-02 1.3055251310619861e-01  8.4950713218340135e-02 1.1187853409447038e-01 1.4799106573603971e-01  8.7867705300462715e-02 1.3011170293176286e-01 1.6549244403367477e-01  8.9503274673192260e-02 1.4893650148237250e-01 1.8301365321546686e-01  8.9922851490349787e-02 1.6822669574106752e-01 2.0050758289204704e-01  8.9191726217148853e-02 1.8785619677015364e-01 2.1792623844457898e-01  8.7373008123581064e-02 2.0769797627359440e-01 2.3522240420172616e-01  8.4523932626594966e-02 2.2762235171977777e-01 2.5235006455555220e-01  8.0690764007013568e-02 2.4749520088970445e-01 2.6926364076097775e-01  7.5902564158730812e-02 2.6717668781091852e-01 2.8591592956011957e-01  7.0164465227994618e-02 2.8652112407476554e-01 3.0225452890149301e-01  6.3451923639438162e-02 3.0537857310984623e-01 3.1821653749892542e-01  5.5708882976871169e-02 3.2359854872667460e-01 3.3372144569130829e-01  4.6854744522377090e-02 3.4103528758631046e-01 3.4866221078234333e-01  3.6806759942990708e-02 3.5755192067898106e-01 3.6289396592530815e-01  2.5524410427894398e-02 3.7301606061298148e-01 3.7622123352575365e-01  1.3088006689368678e-02 3.8726746231256814e-01 3.8843360435505653e-01  0.0000000000000000e+00 4.0000000000000002e-01 4.0000000000000002e-01  0.0000000000000000e+00 0.0000000000000000e+00 0.0000000000000000e+00  1.9413735632310761e-02 9.6253849510871611e-03 2.4197630777493685e-02  3.4672309903233806e-02 2.0336216453900709e-02 4.2579249686773797e-02  4.7083438733918535e-02 3.2318570027329768e-02 5.9764601826730733e-02  5.7327187634610199e-02 4.5612255802507717e-02 7.6777867264370747e-02  6.5747926226035786e-02 6.0170228436462261e-02 9.3900293285747477e-02  7.2537415334441843e-02 7.5894441756755027e-02 1.1120893890442769e-01  7.7820580283275501e-02 9.2659135966061637e-02 1.2870494737319149e-01  8.1694221582138266e-02 1.1032593678778777e-01 1.4635579827743339e-01  8.4244165542873728e-02 1.2875287220256104e-01 1.6411316949142424e-01  8.5552314640239199e-02 1.4779900768082521e-01 1.8192168602614434e-01  8.5698721195752878e-02 1.6732609061118389e-01 1.9972349934291594e-01  8.4760972565965820e-02 1.8719826733545630e-01 2.1746063276367536e-01  8.2811874999639171e-02 2.0728066209050061e-01 2.3507592642144981e-01  7.9915828519355456e-02 2.2743741483257010e-01 2.5251292614752463e-01  7.6124061966777734e-02 2.4752965927385037e-01 2.6971479934372045e-01  7.1468941910812697e-02 2.6741386397339428e-01 2.8662219358114704e-01  6.5957912672004612e-02 2.8694093262990766e-01 3.0316984289513366e-01  5.9568394260672994e-02 3.0595642856263622e-01 3.1928168952732888e-01  5.2246307971135116e-02 3.2430215986845656e-01 3.3486433919764863e-01  4.3912730469301268e-02 3.4181881046455559e-01 3.4979861580103394e-01  3.4484658192701259e-02 3.5834736045177390e-01 3.6392829618458516e-01  2.3915608992770152e-02 3.7372186420379627e-01 3.7704663665300170e-01  1.2267839040895788e-02 3.8773306353942560e-01 3.8892971344422889e-01  0.0000000000000000e+00 4.0000000000000002e-01 4.0000000000000002e-01  0.0000000000000000e+00 0.0000000000000000e+00 0.0000000000000000e+00  1.8800538967014026e-02 8.8377903314850303e-03 2.3101349956491508e-02  3.3575583780875828e-02 1.8953425344317459e-02 4.0852540365265436e-02  4.5554743643987226e-02 3.0549585841099222e-02 5.7684213759355799e-02  5.5364318221831389e-02 4.3640962211128710e-02 7.4537839284641430e-02  6.3327639221305437e-02 5.8140795455540961e-02 9.1643770639685776e-02  6.9637038228764173e-02 7.3911919123514622e-02 1.0904273739846819e-01  7.4429954291181738e-02 9.0796113423012484e-02 1.2670893375407663e-01  7.7821081178878648e-02 1.0863036860976338e-01 1.4458955168553259e-01  7.9915476844317060